 VARIABLES = X,Y,Z,DU1,DU2,DU3,U1,U2,U3,S11,S22,S33,S12,S13,S23
 ZONE, T="0.5000D-01" F=FEPOINT, I=   12 J=    2 ET=BRICK
   0.0000000000E+00   0.0000000000E+00   0.0000000000E+00   0.0000000000E+00   0.0000000000E+00   0.0000000000E+00   0.0000000000E+00   0.0000000000E+00   0.0000000000E+00   0.5917644430E+00  -0.5204610669E-07  -0.5204610733E-07   0.2656920204E-17  -0.5939903157E-13  -0.4086887518E-13
   0.1002500000E+01   0.0000000000E+00  -0.2880310695E-15   0.2500000000E-02   0.0000000000E+00  -0.2880310695E-15   0.0000000000E+00   0.0000000000E+00   0.0000000000E+00   0.5917644429E+00  -0.5204610856E-07  -0.5204610752E-07  -0.3903059564E-15  -0.2127719824E-13   0.1025297380E-13
   0.1002500000E+01   0.9988486274E+00  -0.2245775200E-15   0.2500000000E-02  -0.1151372610E-02  -0.2245775200E-15   0.0000000000E+00   0.0000000000E+00   0.0000000000E+00   0.5917644429E+00  -0.5204610870E-07  -0.5204610773E-07  -0.7121317592E-15  -0.3093021091E-14   0.1040830523E-13
   0.0000000000E+00   0.9988486274E+00  -0.2521798738E-15   0.0000000000E+00  -0.1151372610E-02  -0.2521798738E-15   0.0000000000E+00   0.0000000000E+00   0.0000000000E+00   0.5917644429E+00  -0.5204610782E-07  -0.5204610783E-07  -0.1383505195E-14   0.8186888101E-14  -0.4083094229E-13
   0.0000000000E+00   0.0000000000E+00   0.9988486274E+00   0.0000000000E+00   0.0000000000E+00  -0.1151372610E-02   0.0000000000E+00   0.0000000000E+00   0.0000000000E+00   0.5917644429E+00  -0.5204610733E-07  -0.5204610811E-07  -0.6998424431E-17  -0.5846306861E-13  -0.4015705899E-13
   0.1002500000E+01   0.0000000000E+00   0.9988486274E+00   0.2500000000E-02   0.0000000000E+00  -0.1151372610E-02   0.0000000000E+00   0.0000000000E+00   0.0000000000E+00   0.5917644429E+00  -0.5204610771E-07  -0.5204610672E-07  -0.3704918655E-15  -0.2117565833E-13   0.1023540376E-13
   0.1002500000E+01   0.9988486274E+00   0.9988486274E+00   0.2500000000E-02  -0.1151372610E-02  -0.1151372610E-02   0.0000000000E+00   0.0000000000E+00   0.0000000000E+00   0.5917644428E+00  -0.5204610858E-07  -0.5204610765E-07  -0.8677923863E-15  -0.3930750029E-14   0.1027345336E-13
   0.0000000000E+00   0.9988486274E+00   0.9988486274E+00   0.0000000000E+00  -0.1151372610E-02  -0.1151372610E-02   0.0000000000E+00   0.0000000000E+00   0.0000000000E+00   0.5917644428E+00  -0.5204610644E-07  -0.5204610659E-07  -0.1439418947E-14   0.8566491870E-14  -0.4011553581E-13
   0.2005000000E+01   0.0000000000E+00  -0.2609620222E-15   0.5000000000E-02   0.0000000000E+00  -0.2609620222E-15   0.0000000000E+00   0.0000000000E+00   0.0000000000E+00   0.5917644429E+00  -0.5204610774E-07  -0.5204610767E-07  -0.5535691840E-16   0.1692066732E-13  -0.4688533285E-14
   0.2005000000E+01   0.9988486274E+00  -0.2898473023E-15   0.5000000000E-02  -0.1151372610E-02  -0.2898473023E-15   0.0000000000E+00   0.0000000000E+00   0.0000000000E+00   0.5917644429E+00  -0.5204610705E-07  -0.5204610773E-07   0.7148029736E-15  -0.1436701407E-13  -0.4785446056E-14
   0.2005000000E+01   0.0000000000E+00   0.9988486274E+00   0.5000000000E-02   0.0000000000E+00  -0.1151372610E-02   0.0000000000E+00   0.0000000000E+00   0.0000000000E+00   0.5917644429E+00  -0.5204610631E-07  -0.5204610608E-07   0.1006466706E-15   0.1634170175E-13  -0.5297760495E-14
   0.2005000000E+01   0.9988486274E+00   0.9988486274E+00   0.5000000000E-02  -0.1151372610E-02  -0.1151372610E-02   0.0000000000E+00   0.0000000000E+00   0.0000000000E+00   0.5917644428E+00  -0.5204610891E-07  -0.5204610942E-07   0.4976383223E-15  -0.1581164338E-13  -0.5598588621E-14
     1     2     3     4     5     6     7     8
     2     9    10     3     6    11    12     7
 VARIABLES = X,Y,Z,DU1,DU2,DU3,U1,U2,U3,S11,S22,S33,S12,S13,S23
 ZONE, T="0.1000D+00" F=FEPOINT, I=   12 J=    2 ET=BRICK
   0.0000000000E+00   0.0000000000E+00   0.0000000000E+00   0.0000000000E+00   0.0000000000E+00   0.0000000000E+00   0.0000000000E+00   0.0000000000E+00   0.0000000000E+00   0.8174750026E+00  -0.3321467503E-06  -0.3321467501E-06   0.1804103406E-17   0.7906694174E-13   0.5441062433E-13
   0.1005000000E+01   0.0000000000E+00   0.5595591465E-15   0.2500000000E-02   0.0000000000E+00   0.8475902161E-15   0.2500000000E-02   0.0000000000E+00  -0.2880310695E-15   0.8174750026E+00  -0.3321467470E-06  -0.3321467473E-06   0.4897335921E-15   0.2860587681E-13  -0.1370037290E-13
   0.1005000000E+01   0.9976362457E+00   0.4361317924E-15   0.2500000000E-02  -0.1212381667E-02   0.6607093124E-15   0.2500000000E-02  -0.1151372610E-02  -0.2245775200E-15   0.8174750025E+00  -0.3321467469E-06  -0.3321467470E-06   0.4992465104E-15   0.4614782011E-14  -0.1382945009E-13
   0.0000000000E+00   0.9976362457E+00   0.4903172923E-15   0.0000000000E+00  -0.1212381667E-02   0.7424971661E-15   0.0000000000E+00  -0.1151372610E-02  -0.2521798738E-15   0.8174750025E+00  -0.3321467465E-06  -0.3321467465E-06   0.3812867248E-15  -0.1128891098E-13   0.5430897515E-13
   0.0000000000E+00   0.0000000000E+00   0.9976362457E+00   0.0000000000E+00   0.0000000000E+00  -0.1212381667E-02   0.0000000000E+00   0.0000000000E+00  -0.1151372610E-02   0.8174750025E+00  -0.3321467495E-06  -0.3321467490E-06  -0.1171673252E-16   0.7859678558E-13   0.5404291598E-13
   0.1005000000E+01   0.0000000000E+00   0.9976362457E+00   0.2500000000E-02   0.0000000000E+00  -0.1212381667E-02   0.2500000000E-02   0.0000000000E+00  -0.1151372610E-02   0.8174750025E+00  -0.3321467484E-06  -0.3321467485E-06   0.4045992277E-15   0.2851689987E-13  -0.1363482087E-13
   0.1005000000E+01   0.9976362457E+00   0.9976362457E+00   0.2500000000E-02  -0.1212381667E-02  -0.1212381667E-02   0.2500000000E-02  -0.1151372610E-02  -0.1151372610E-02   0.8174750024E+00  -0.3321467481E-06  -0.3321467482E-06   0.5440045399E-15   0.4747905463E-14  -0.1374062879E-13
   0.0000000000E+00   0.9976362457E+00   0.9976362457E+00   0.0000000000E+00  -0.1212381667E-02  -0.1212381667E-02   0.0000000000E+00  -0.1151372610E-02  -0.1151372610E-02   0.8174750024E+00  -0.3321467458E-06  -0.3321467457E-06   0.2649853600E-15  -0.1105221817E-13   0.5389422336E-13
   0.2010000000E+01   0.0000000000E+00   0.5111773940E-15   0.5000000000E-02   0.0000000000E+00   0.7721394162E-15   0.5000000000E-02   0.0000000000E+00  -0.2609620222E-15   0.8174750025E+00  -0.3321467461E-06  -0.3321467463E-06  -0.5904468307E-16  -0.2233280113E-13   0.6439953499E-14
   0.2010000000E+01   0.9976362457E+00   0.5693869145E-15   0.5000000000E-02  -0.1212381667E-02   0.8592342168E-15   0.5000000000E-02  -0.1151372610E-02  -0.2898473023E-15   0.8174750024E+00  -0.3321467482E-06  -0.3321467479E-06  -0.3519011625E-15   0.1981665513E-13   0.6634650454E-14
   0.2010000000E+01   0.0000000000E+00   0.9976362457E+00   0.5000000000E-02   0.0000000000E+00  -0.1212381667E-02   0.5000000000E-02   0.0000000000E+00  -0.1151372610E-02   0.8174750024E+00  -0.3321467482E-06  -0.3321467484E-06   0.3234914211E-16  -0.2217453500E-13   0.6993581098E-14
   0.2010000000E+01   0.9976362457E+00   0.9976362457E+00   0.5000000000E-02  -0.1212381667E-02  -0.1212381667E-02   0.5000000000E-02  -0.1151372610E-02  -0.1151372610E-02   0.8174750023E+00  -0.3321467502E-06  -0.3321467499E-06   0.2779009607E-16   0.2043149890E-13   0.7008241530E-14
     1     2     3     4     5     6     7     8
     2     9    10     3     6    11    12     7
 VARIABLES = X,Y,Z,DU1,DU2,DU3,U1,U2,U3,S11,S22,S33,S12,S13,S23
 ZONE, T="0.1500D+00" F=FEPOINT, I=   12 J=    2 ET=BRICK
   0.0000000000E+00   0.0000000000E+00   0.0000000000E+00   0.0000000000E+00   0.0000000000E+00   0.0000000000E+00   0.0000000000E+00   0.0000000000E+00   0.0000000000E+00   0.9419056394E+00  -0.1945227994E-07  -0.1945228033E-07   0.3557845298E-16  -0.1512831139E-12  -0.1039147645E-12
   0.1007500000E+01   0.0000000000E+00  -0.1401178303E-14   0.2500000000E-02   0.0000000000E+00  -0.1960737450E-14   0.5000000000E-02   0.0000000000E+00   0.5595591465E-15   0.9419056394E+00  -0.1945227888E-07  -0.1945227886E-07  -0.2992840695E-15  -0.5424545306E-13   0.2626845680E-13
   0.1007500000E+01   0.9964069843E+00  -0.1092054776E-14   0.2500000000E-02  -0.1229261456E-02  -0.1528186569E-14   0.5000000000E-02  -0.2363754277E-02   0.4361317924E-15   0.9419056393E+00  -0.1945227642E-07  -0.1945227632E-07  -0.2888921632E-15  -0.8929645466E-14   0.2615577648E-13
   0.0000000000E+00   0.9964069843E+00  -0.1224021618E-14   0.0000000000E+00  -0.1229261456E-02  -0.1714338910E-14   0.0000000000E+00  -0.2363754277E-02   0.4903172923E-15   0.9419056393E+00  -0.1945227529E-07  -0.1945227522E-07  -0.1506990984E-15   0.2124209452E-13  -0.1039030554E-12
   0.0000000000E+00   0.0000000000E+00   0.9964069843E+00   0.0000000000E+00   0.0000000000E+00  -0.1229261456E-02   0.0000000000E+00   0.0000000000E+00  -0.2363754277E-02   0.9419056393E+00  -0.1945227397E-07  -0.1945227437E-07  -0.1321753268E-16  -0.1508863079E-12  -0.1034386390E-12
   0.1007500000E+01   0.0000000000E+00   0.9964069843E+00   0.2500000000E-02   0.0000000000E+00  -0.1229261456E-02   0.5000000000E-02   0.0000000000E+00  -0.2363754277E-02   0.9419056393E+00  -0.1945227684E-07  -0.1945227679E-07  -0.3083419181E-15  -0.5418682981E-13   0.2622099917E-13
   0.1007500000E+01   0.9964069843E+00   0.9964069843E+00   0.2500000000E-02  -0.1229261456E-02  -0.1229261456E-02   0.5000000000E-02  -0.2363754277E-02  -0.2363754277E-02   0.9419056392E+00  -0.1945227828E-07  -0.1945227815E-07  -0.3497725951E-15  -0.8922221548E-14   0.2627048438E-13
   0.0000000000E+00   0.9964069843E+00   0.9964069843E+00   0.0000000000E+00  -0.1229261456E-02  -0.1229261456E-02   0.0000000000E+00  -0.2363754277E-02  -0.2363754277E-02   0.9419056392E+00  -0.1945227908E-07  -0.1945227903E-07  -0.2785800597E-15   0.2102533546E-13  -0.1032793072E-12
   0.2015000000E+01   0.0000000000E+00  -0.1281403788E-14   0.5000000000E-02   0.0000000000E+00  -0.1792581182E-14   0.1000000000E-01   0.0000000000E+00   0.5111773940E-15   0.9419056394E+00  -0.1945227800E-07  -0.1945227775E-07  -0.5257315051E-17   0.4234186273E-13  -0.1269866004E-13
   0.2015000000E+01   0.9964069843E+00  -0.1430958614E-14   0.5000000000E-02  -0.1229261456E-02  -0.2000345528E-14   0.1000000000E-01  -0.2363754277E-02   0.5693869145E-15   0.9419056393E+00  -0.1945227901E-07  -0.1945227918E-07   0.6319497723E-16  -0.3861428418E-13  -0.1267181264E-13
   0.2015000000E+01   0.0000000000E+00   0.9964069843E+00   0.5000000000E-02   0.0000000000E+00  -0.1229261456E-02   0.1000000000E-01   0.0000000000E+00  -0.2363754277E-02   0.9419056393E+00  -0.1945227716E-07  -0.1945227707E-07  -0.2342821521E-16   0.4266833582E-13  -0.1307599627E-13
   0.2015000000E+01   0.9964069843E+00   0.9964069843E+00   0.5000000000E-02  -0.1229261456E-02  -0.1229261456E-02   0.1000000000E-01  -0.2363754277E-02  -0.2363754277E-02   0.9419056392E+00  -0.1945227623E-07  -0.1945227655E-07   0.1699496573E-15  -0.3903531491E-13  -0.1319831956E-13
     1     2     3     4     5     6     7     8
     2     9    10     3     6    11    12     7
 VARIABLES = X,Y,Z,DU1,DU2,DU3,U1,U2,U3,S11,S22,S33,S12,S13,S23
 ZONE, T="0.2000D+00" F=FEPOINT, I=   12 J=    2 ET=BRICK
   0.0000000000E+00   0.0000000000E+00   0.0000000000E+00   0.0000000000E+00   0.0000000000E+00   0.0000000000E+00   0.0000000000E+00   0.0000000000E+00   0.0000000000E+00   0.9988343168E+00   0.1692747743E-06   0.1692747741E-06   0.5398034937E-16  -0.2869670529E-12  -0.1970942350E-12
   0.1010000000E+01   0.0000000000E+00  -0.3351883393E-14   0.2500000000E-02   0.0000000000E+00  -0.1950705090E-14   0.7500000000E-02   0.0000000000E+00  -0.1401178303E-14   0.9988343167E+00   0.1692747729E-06   0.1692747729E-06  -0.1324220848E-15  -0.1033019166E-12   0.4990641576E-13
   0.1010000000E+01   0.9951664724E+00  -0.2611164510E-14   0.2500000000E-02  -0.1240511824E-02  -0.1519109734E-14   0.7500000000E-02  -0.3593015733E-02  -0.1092054776E-14   0.9988343166E+00   0.1692747752E-06   0.1692747753E-06  -0.1444763982E-15  -0.1687671073E-13   0.4982985764E-13
   0.0000000000E+00   0.9951664724E+00  -0.2926442230E-14   0.0000000000E+00  -0.1240511824E-02  -0.1702420612E-14   0.0000000000E+00  -0.3593015733E-02  -0.1224021618E-14   0.9988343167E+00   0.1692747723E-06   0.1692747722E-06  -0.6177763320E-16   0.4019534051E-13  -0.1969713355E-12
   0.0000000000E+00   0.0000000000E+00   0.9951664724E+00   0.0000000000E+00   0.0000000000E+00  -0.1240511824E-02   0.0000000000E+00   0.0000000000E+00  -0.3593015733E-02   0.9988343167E+00   0.1692747763E-06   0.1692747760E-06  -0.3013873133E-16  -0.2867290952E-12  -0.1967872065E-12
   0.1010000000E+01   0.0000000000E+00   0.9951664724E+00   0.2500000000E-02   0.0000000000E+00  -0.1240511824E-02   0.7500000000E-02   0.0000000000E+00  -0.3593015733E-02   0.9988343166E+00   0.1692747755E-06   0.1692747755E-06  -0.1743644446E-15  -0.1029739597E-12   0.4979638354E-13
   0.1010000000E+01   0.9951664724E+00   0.9951664724E+00   0.2500000000E-02  -0.1240511824E-02  -0.1240511824E-02   0.7500000000E-02  -0.3593015733E-02  -0.3593015733E-02   0.9988343165E+00   0.1692747727E-06   0.1692747728E-06  -0.3565678964E-15  -0.1720055206E-13   0.4985311594E-13
   0.0000000000E+00   0.9951664724E+00   0.9951664724E+00   0.0000000000E+00  -0.1240511824E-02  -0.1240511824E-02   0.0000000000E+00  -0.3593015733E-02  -0.3593015733E-02   0.9988343165E+00   0.1692747693E-06   0.1692747692E-06  -0.2335140643E-15   0.4020295765E-13  -0.1966699887E-12
   0.2020000000E+01   0.0000000000E+00  -0.3062258586E-14   0.5000000000E-02   0.0000000000E+00  -0.1780854798E-14   0.1500000000E-01   0.0000000000E+00  -0.1281403788E-14   0.9988343167E+00   0.1692747743E-06   0.1692747744E-06   0.6356703850E-16   0.8092012269E-13  -0.2445052771E-13
   0.2020000000E+01   0.9951664724E+00  -0.3425414679E-14   0.5000000000E-02  -0.1240511824E-02  -0.1994456065E-14   0.1500000000E-01  -0.3593015733E-02  -0.1430958614E-14   0.9988343166E+00   0.1692747758E-06   0.1692747756E-06  -0.7119544189E-16  -0.7378124979E-13  -0.2452566784E-13
   0.2020000000E+01   0.0000000000E+00   0.9951664724E+00   0.5000000000E-02   0.0000000000E+00  -0.1240511824E-02   0.1500000000E-01   0.0000000000E+00  -0.3593015733E-02   0.9988343166E+00   0.1692747772E-06   0.1692747774E-06   0.4545694730E-16   0.8071324326E-13  -0.2468457594E-13
   0.2020000000E+01   0.9951664724E+00   0.9951664724E+00   0.5000000000E-02  -0.1240511824E-02  -0.1240511824E-02   0.1500000000E-01  -0.3593015733E-02  -0.3593015733E-02   0.9988343165E+00   0.1692747735E-06   0.1692747734E-06   0.1464276863E-15  -0.7406084739E-13  -0.2468661254E-13
     1     2     3     4     5     6     7     8
     2     9    10     3     6    11    12     7
 VARIABLES = X,Y,Z,DU1,DU2,DU3,U1,U2,U3,S11,S22,S33,S12,S13,S23
 ZONE, T="0.2625D+00" F=FEPOINT, I=   12 J=    2 ET=BRICK
   0.0000000000E+00   0.0000000000E+00   0.0000000000E+00   0.0000000000E+00   0.0000000000E+00   0.0000000000E+00   0.0000000000E+00   0.0000000000E+00   0.0000000000E+00   0.1026669876E+01  -0.1260887512E-08  -0.1260887490E-08  -0.2419606406E-16   0.3180664366E-12   0.2183975508E-12
   0.1013125000E+01   0.0000000000E+00   0.4754560121E-14   0.3125000000E-02   0.0000000000E+00   0.8106443514E-14   0.1000000000E-01   0.0000000000E+00  -0.3351883393E-14   0.1026669876E+01  -0.1260888039E-08  -0.1260888014E-08  -0.1142437228E-15   0.1142313045E-12  -0.5527683785E-13
   0.1013125000E+01   0.9936086116E+00   0.3703807088E-14   0.3125000000E-02  -0.1557860797E-02   0.6314971598E-14   0.1000000000E-01  -0.4833527558E-02  -0.2611164510E-14   0.1026669876E+01  -0.1260889267E-08  -0.1260889306E-08  -0.1435293758E-15   0.1877426218E-13  -0.5538943903E-13
   0.0000000000E+00   0.9936086116E+00   0.4151489245E-14   0.0000000000E+00  -0.1557860797E-02   0.7077931475E-14   0.0000000000E+00  -0.4833527558E-02  -0.2926442230E-14   0.1026669876E+01  -0.1260890810E-08  -0.1260890968E-08   0.1115903006E-15  -0.4467252434E-13   0.2184220407E-12
   0.0000000000E+00   0.0000000000E+00   0.9936086116E+00   0.0000000000E+00   0.0000000000E+00  -0.1557860797E-02   0.0000000000E+00   0.0000000000E+00  -0.4833527558E-02   0.1026669876E+01  -0.1260888562E-08  -0.1260888489E-08  -0.1170175840E-16   0.3181860987E-12   0.2184753845E-12
   0.1013125000E+01   0.0000000000E+00   0.9936086116E+00   0.3125000000E-02   0.0000000000E+00  -0.1557860797E-02   0.1000000000E-01   0.0000000000E+00  -0.4833527558E-02   0.1026669876E+01  -0.1260890632E-08  -0.1260890474E-08   0.2376510000E-16   0.1141833951E-12  -0.5537317739E-13
   0.1013125000E+01   0.9936086116E+00   0.9936086116E+00   0.3125000000E-02  -0.1557860797E-02  -0.1557860797E-02   0.1000000000E-01  -0.4833527558E-02  -0.4833527558E-02   0.1026669876E+01  -0.1260891741E-08  -0.1260891647E-08   0.6069406623E-16   0.1858351877E-13  -0.5548431020E-13
   0.0000000000E+00   0.9936086116E+00   0.9936086116E+00   0.0000000000E+00  -0.1557860797E-02  -0.1557860797E-02   0.0000000000E+00  -0.4833527558E-02  -0.4833527558E-02   0.1026669876E+01  -0.1260891920E-08  -0.1260892026E-08  -0.5953865657E-16  -0.4457181301E-13   0.2183081977E-12
   0.2026250000E+01   0.0000000000E+00   0.4340769924E-14   0.6250000000E-02   0.0000000000E+00   0.7403028510E-14   0.2000000000E-01   0.0000000000E+00  -0.3062258586E-14   0.1026669876E+01  -0.1260888538E-08  -0.1260888610E-08  -0.4258063328E-16  -0.9053846681E-13   0.2738475184E-13
   0.2026250000E+01   0.9936086116E+00   0.4861016085E-14   0.6250000000E-02  -0.1557860797E-02   0.8286430764E-14   0.2000000000E-01  -0.4833527558E-02  -0.3425414679E-14   0.1026669876E+01  -0.1260890059E-08  -0.1260890217E-08   0.1517923716E-18   0.8242502281E-13   0.2737754341E-13
   0.2026250000E+01   0.0000000000E+00   0.9936086116E+00   0.6250000000E-02   0.0000000000E+00  -0.1557860797E-02   0.2000000000E-01   0.0000000000E+00  -0.4833527558E-02   0.1026669876E+01  -0.1260889971E-08  -0.1260889966E-08   0.9015694226E-16  -0.8945278447E-13   0.2727046748E-13
   0.2026250000E+01   0.9936086116E+00   0.9936086116E+00   0.6250000000E-02  -0.1557860797E-02  -0.1557860797E-02   0.2000000000E-01  -0.4833527558E-02  -0.4833527558E-02   0.1026669876E+01  -0.1260891670E-08  -0.1260891751E-08  -0.2523832337E-16   0.8184367446E-13   0.2730228210E-13
     1     2     3     4     5     6     7     8
     2     9    10     3     6    11    12     7
 VARIABLES = X,Y,Z,DU1,DU2,DU3,U1,U2,U3,S11,S22,S33,S12,S13,S23
 ZONE, T="0.3250D+00" F=FEPOINT, I=   12 J=    2 ET=BRICK
   0.0000000000E+00   0.0000000000E+00   0.0000000000E+00   0.0000000000E+00   0.0000000000E+00   0.0000000000E+00   0.0000000000E+00   0.0000000000E+00   0.0000000000E+00   0.1048993296E+01   0.9405071196E-09   0.9405073268E-09   0.1630808095E-16   0.7090623351E-12   0.4866109008E-12
   0.1016250000E+01   0.0000000000E+00   0.1286242157E-13   0.3125000000E-02   0.0000000000E+00   0.8107861449E-14   0.1312500000E-01   0.0000000000E+00   0.4754560121E-14   0.1048993296E+01   0.9405122604E-09   0.9405122365E-09   0.2863825136E-15   0.2547252568E-12  -0.1232834133E-12
   0.1016250000E+01   0.9920498322E+00   0.1001738036E-13   0.3125000000E-02  -0.1558779429E-02   0.6313573268E-14   0.1312500000E-01  -0.6391388355E-02   0.3703807088E-14   0.1048993296E+01   0.9405114055E-09   0.9405113404E-09   0.3052661316E-15   0.4126889758E-13  -0.1234095226E-12
   0.0000000000E+00   0.9920498322E+00   0.1122576623E-13   0.0000000000E+00  -0.1558779429E-02   0.7074276981E-14   0.0000000000E+00  -0.6391388355E-02   0.4151489245E-14   0.1048993296E+01   0.9405119939E-09   0.9405118724E-09   0.1902063564E-15  -0.9945631061E-13   0.4866536272E-12
   0.0000000000E+00   0.0000000000E+00   0.9920498322E+00   0.0000000000E+00   0.0000000000E+00  -0.1558779429E-02   0.0000000000E+00   0.0000000000E+00  -0.6391388355E-02   0.1048993296E+01   0.9405142439E-09   0.9405142852E-09  -0.2660509886E-16   0.7090077896E-12   0.4864572349E-12
   0.1016250000E+01   0.0000000000E+00   0.9920498322E+00   0.3125000000E-02   0.0000000000E+00  -0.1558779429E-02   0.1312500000E-01   0.0000000000E+00  -0.6391388355E-02   0.1048993296E+01   0.9405117191E-09   0.9405117191E-09  -0.1922087246E-15   0.2545813044E-12  -0.1233721512E-12
   0.1016250000E+01   0.9920498322E+00   0.9920498322E+00   0.3125000000E-02  -0.1558779429E-02  -0.1558779429E-02   0.1312500000E-01  -0.6391388355E-02  -0.6391388355E-02   0.1048993296E+01   0.9405108230E-09   0.9405107817E-09  -0.1804655504E-15   0.4134932538E-13  -0.1232605632E-12
   0.0000000000E+00   0.9920498322E+00   0.9920498322E+00   0.0000000000E+00  -0.1558779429E-02  -0.1558779429E-02   0.0000000000E+00  -0.6391388355E-02  -0.6391388355E-02   0.1048993296E+01   0.9405035264E-09   0.9405032389E-09  -0.7418689167E-19  -0.9922253436E-13   0.4863644736E-12
   0.2032500000E+01   0.0000000000E+00   0.1174478474E-13   0.6250000000E-02   0.0000000000E+00   0.7404014814E-14   0.2625000000E-01   0.0000000000E+00   0.4340769924E-14   0.1048993296E+01   0.9405114570E-09   0.9405115579E-09   0.5237167240E-16  -0.1996935298E-12   0.6087722454E-13
   0.2032500000E+01   0.9920498322E+00   0.1314998747E-13   0.6250000000E-02  -0.1558779429E-02   0.8288971381E-14   0.2625000000E-01  -0.6391388355E-02   0.4861016085E-14   0.1048993296E+01   0.9404993606E-09   0.9404994821E-09  -0.2873405392E-16   0.1824662422E-12   0.6097660529E-13
   0.2032500000E+01   0.0000000000E+00   0.9920498322E+00   0.6250000000E-02   0.0000000000E+00  -0.1558779429E-02   0.2625000000E-01   0.0000000000E+00  -0.6391388355E-02   0.1048993296E+01   0.9405083718E-09   0.9405084607E-09   0.1086495856E-16  -0.2001555343E-12   0.6094112833E-13
   0.2032500000E+01   0.9920498322E+00   0.9920498322E+00   0.6250000000E-02  -0.1558779429E-02  -0.1558779429E-02   0.2625000000E-01  -0.6391388355E-02  -0.6391388355E-02   0.1048993296E+01   0.9405121754E-09   0.9405122850E-09   0.1095312053E-16   0.1835718813E-12   0.6092794743E-13
     1     2     3     4     5     6     7     8
     2     9    10     3     6    11    12     7
 VARIABLES = X,Y,Z,DU1,DU2,DU3,U1,U2,U3,S11,S22,S33,S12,S13,S23
 ZONE, T="0.4031D+00" F=FEPOINT, I=   12 J=    2 ET=BRICK
   0.0000000000E+00   0.0000000000E+00   0.0000000000E+00   0.0000000000E+00   0.0000000000E+00   0.0000000000E+00   0.0000000000E+00   0.0000000000E+00   0.0000000000E+00   0.1071972336E+01  -0.4864128450E-09  -0.4864128790E-09   0.1187280597E-16  -0.8743085993E-12  -0.6000128720E-12
   0.1020156250E+01   0.0000000000E+00  -0.1927840940E-13   0.3906250000E-02   0.0000000000E+00  -0.3214083097E-13   0.1625000000E-01   0.0000000000E+00   0.1286242157E-13   0.1071972336E+01  -0.4864129277E-09  -0.4864129812E-09  -0.3695524942E-15  -0.3143730765E-12   0.1521861256E-12
   0.1020156250E+01   0.9901005371E+00  -0.1501099315E-13   0.3906250000E-02  -0.1949295160E-02  -0.2502837351E-13   0.1625000000E-01  -0.7950167784E-02   0.1001738036E-13   0.1071972336E+01  -0.4864063015E-09  -0.4864063015E-09  -0.2933312341E-15  -0.5101453421E-13   0.1521198503E-12
   0.0000000000E+00   0.9901005371E+00  -0.1682330905E-13   0.0000000000E+00  -0.1949295160E-02  -0.2804907527E-13   0.0000000000E+00  -0.7950167784E-02   0.1122576623E-13   0.1071972336E+01  -0.4864116386E-09  -0.4864115387E-09   0.1016151742E-15   0.1225377066E-12  -0.6000687518E-12
   0.0000000000E+00   0.0000000000E+00   0.9901005371E+00   0.0000000000E+00   0.0000000000E+00  -0.1949295160E-02   0.0000000000E+00   0.0000000000E+00  -0.7950167784E-02   0.1071972336E+01  -0.4864080939E-09  -0.4864081207E-09   0.3026835960E-16  -0.8742969366E-12  -0.5999200538E-12
   0.1020156250E+01   0.0000000000E+00   0.9901005371E+00   0.3906250000E-02   0.0000000000E+00  -0.1949295161E-02   0.1625000000E-01   0.0000000000E+00  -0.7950167784E-02   0.1071972336E+01  -0.4864062819E-09  -0.4864062819E-09   0.1745714388E-15  -0.3141500906E-12   0.1522594488E-12
   0.1020156250E+01   0.9901005371E+00   0.9901005371E+00   0.3906250000E-02  -0.1949295160E-02  -0.1949295161E-02   0.1625000000E-01  -0.7950167784E-02  -0.7950167784E-02   0.1071972336E+01  -0.4864100301E-09  -0.4864099765E-09   0.1594080228E-15  -0.5125325959E-13   0.1520653550E-12
   0.0000000000E+00   0.9901005371E+00   0.9901005371E+00   0.0000000000E+00  -0.1949295160E-02  -0.1949295161E-02   0.0000000000E+00  -0.7950167784E-02  -0.7950167784E-02   0.1071972336E+01  -0.4864019200E-09  -0.4864018128E-09  -0.1312632374E-16   0.1227203606E-12  -0.5999775912E-12
   0.2040312500E+01   0.0000000000E+00  -0.1760813169E-13   0.7812500000E-02   0.0000000000E+00  -0.2935291643E-13   0.3250000000E-01   0.0000000000E+00   0.1174478474E-13   0.1071972336E+01  -0.4864130639E-09  -0.4864131370E-09   0.6865844754E-16   0.2467227363E-12  -0.7486527108E-13
   0.2040312500E+01   0.9901005371E+00  -0.1970814615E-13   0.7812500000E-02  -0.1949295160E-02  -0.3285813362E-13   0.3250000000E-01  -0.7950167784E-02   0.1314998747E-13   0.1071972336E+01  -0.4864007644E-09  -0.4864008643E-09  -0.6559100522E-16  -0.2253296587E-12  -0.7504241789E-13
   0.2040312500E+01   0.0000000000E+00   0.9901005371E+00   0.7812500000E-02   0.0000000000E+00  -0.1949295161E-02   0.3250000000E-01   0.0000000000E+00  -0.7950167784E-02   0.1071972336E+01  -0.4864044554E-09  -0.4864044286E-09   0.9470262421E-16   0.2463301474E-12  -0.7479444877E-13
   0.2040312500E+01   0.9901005371E+00   0.9901005371E+00   0.7812500000E-02  -0.1949295160E-02  -0.1949295161E-02   0.3250000000E-01  -0.7950167784E-02  -0.7950167784E-02   0.1071972336E+01  -0.4864181937E-09  -0.4864181938E-09   0.1017060487E-15  -0.2255181400E-12  -0.7492166545E-13
     1     2     3     4     5     6     7     8
     2     9    10     3     6    11    12     7
 VARIABLES = X,Y,Z,DU1,DU2,DU3,U1,U2,U3,S11,S22,S33,S12,S13,S23
 ZONE, T="0.4813D+00" F=FEPOINT, I=   12 J=    2 ET=BRICK
   0.0000000000E+00   0.0000000000E+00   0.0000000000E+00   0.0000000000E+00   0.0000000000E+00   0.0000000000E+00   0.0000000000E+00   0.0000000000E+00   0.0000000000E+00   0.1091225957E+01   0.3123124611E-09   0.3123123681E-09  -0.3314481608E-17  -0.1986715105E-11  -0.1363461549E-11
   0.1024062500E+01   0.0000000000E+00  -0.5141492172E-13   0.3906250000E-02   0.0000000000E+00  -0.3213651232E-13   0.2015625000E-01   0.0000000000E+00  -0.1927840940E-13   0.1091225957E+01   0.3123177366E-09   0.3123177401E-09   0.1528159489E-15  -0.7132553892E-12   0.3457715811E-12
   0.1024062500E+01   0.9881506210E+00  -0.4003604588E-13   0.3906250000E-02  -0.1949916063E-02  -0.2502505273E-13   0.2015625000E-01  -0.9899462944E-02  -0.1501099315E-13   0.1091225956E+01   0.3123125430E-09   0.3123125131E-09   0.2244628358E-15  -0.1171170233E-12   0.3457102962E-12
   0.0000000000E+00   0.9881506210E+00  -0.4487078282E-13   0.0000000000E+00  -0.1949916063E-02  -0.2804747377E-13   0.0000000000E+00  -0.9899462944E-02  -0.1682330905E-13   0.1091225956E+01   0.3123185044E-09   0.3123185360E-09  -0.8614062116E-16   0.2787608207E-12  -0.1363519989E-11
   0.0000000000E+00   0.0000000000E+00   0.9881506210E+00   0.0000000000E+00   0.0000000000E+00  -0.1949916063E-02   0.0000000000E+00   0.0000000000E+00  -0.9899462944E-02   0.1091225956E+01   0.3123130877E-09   0.3123129924E-09  -0.4950114604E-16  -0.1986574951E-11  -0.1363471852E-11
   0.1024062500E+01   0.0000000000E+00   0.9881506210E+00   0.3906250000E-02   0.0000000000E+00  -0.1949916063E-02   0.2015625000E-01   0.0000000000E+00  -0.9899462944E-02   0.1091225956E+01   0.3123145785E-09   0.3123146443E-09  -0.8017718966E-16  -0.7134174767E-12   0.3456557154E-12
   0.1024062500E+01   0.9881506210E+00   0.9881506210E+00   0.3906250000E-02  -0.1949916063E-02  -0.1949916063E-02   0.2015625000E-01  -0.9899462944E-02  -0.9899462944E-02   0.1091225956E+01   0.3123146180E-09   0.3123146504E-09  -0.2589048177E-15  -0.1169731949E-12   0.3457560762E-12
   0.0000000000E+00   0.9881506210E+00   0.9881506210E+00   0.0000000000E+00  -0.1949916063E-02  -0.1949916063E-02   0.0000000000E+00  -0.9899462944E-02  -0.9899462944E-02   0.1091225956E+01   0.3123165144E-09   0.3123165438E-09  -0.7517104891E-17   0.2787892789E-12  -0.1363616764E-11
   0.2048125000E+01   0.0000000000E+00  -0.4695944245E-13   0.7812500000E-02   0.0000000000E+00  -0.2935131076E-13   0.4031250000E-01   0.0000000000E+00  -0.1760813169E-13   0.1091225956E+01   0.3123168206E-09   0.3123167960E-09  -0.1650335413E-16   0.5600188637E-12  -0.1702513783E-12
   0.2048125000E+01   0.9881506210E+00  -0.5256168775E-13   0.7812500000E-02  -0.1949916063E-02  -0.3285354159E-13   0.4031250000E-01  -0.9899462944E-02  -0.1970814615E-13   0.1091225956E+01   0.3123106982E-09   0.3123107983E-09   0.9804235950E-16  -0.5123625321E-12  -0.1702973678E-12
   0.2048125000E+01   0.0000000000E+00   0.9881506210E+00   0.7812500000E-02   0.0000000000E+00  -0.1949916063E-02   0.4031250000E-01   0.0000000000E+00  -0.9899462944E-02   0.1091225956E+01   0.3123151398E-09   0.3123150840E-09  -0.1624231031E-15   0.5590677194E-12  -0.1698913266E-12
   0.2048125000E+01   0.9881506210E+00   0.9881506210E+00   0.7812500000E-02  -0.1949916063E-02  -0.1949916063E-02   0.4031250000E-01  -0.9899462944E-02  -0.9899462944E-02   0.1091225956E+01   0.3123218263E-09   0.3123218952E-09   0.1760746525E-15  -0.5114089653E-12  -0.1701395432E-12
     1     2     3     4     5     6     7     8
     2     9    10     3     6    11    12     7
 VARIABLES = X,Y,Z,DU1,DU2,DU3,U1,U2,U3,S11,S22,S33,S12,S13,S23
 ZONE, T="0.5789D+00" F=FEPOINT, I=   12 J=    2 ET=BRICK
   0.0000000000E+00   0.0000000000E+00   0.0000000000E+00   0.0000000000E+00   0.0000000000E+00   0.0000000000E+00   0.0000000000E+00   0.0000000000E+00   0.0000000000E+00   0.1111660316E+01  -0.2272629496E-09  -0.2272628758E-09  -0.1292000072E-16   0.2541652663E-11   0.1743977593E-11