 VARIABLES = X,Y,Z,S11,S22,S33,S12,S13,S23
 ZONE, T="0.1000D+01" F=FEPOINT, I=   12 J=    2 ET=BRICK
   0.0000000000E+00   0.0000000000E+00   0.0000000000E+00   0.3057836657E+02   0.4936849131E-11   0.4941352277E-11  -0.6753788374E-15   0.4042262893E-14   0.1629144957E-14
   0.1900000000E+01  -0.1410702580E-16   0.1355400612E-15   0.3057836657E+02   0.4121216362E-11   0.4119084196E-11  -0.9112004540E-15   0.3838351453E-15  -0.6381521124E-15
   0.1900000000E+01   0.7291274332E+00  -0.1789908673E-15   0.3057836656E+02   0.5074433985E-11   0.5075610901E-11  -0.2029974941E-14   0.9086585794E-15  -0.1552964288E-14
   0.0000000000E+00   0.7291274332E+00   0.0000000000E+00   0.3057836656E+02   0.3657608943E-11   0.3656542860E-11   0.1932429382E-14  -0.4556278675E-14   0.1028729636E-14
   0.0000000000E+00   0.2252168021E-15   0.7291274332E+00   0.3057836656E+02   0.5034109956E-11   0.5037960654E-11   0.2190342818E-15  -0.5486644358E-14  -0.1101298061E-14
   0.1900000000E+01   0.2066267103E-15   0.7291274332E+00   0.3057836656E+02   0.3927876807E-11   0.3927049536E-11  -0.1720007838E-14  -0.9777862487E-15   0.1597786202E-14
   0.1900000000E+01   0.7291274332E+00   0.7291274332E+00   0.3057836656E+02   0.4529807794E-11   0.4532289606E-11  -0.5395995954E-16   0.1889583699E-14   0.6829740266E-15
   0.0000000000E+00   0.7291274332E+00   0.7291274332E+00   0.3057836656E+02   0.3927716190E-11   0.3925997659E-11   0.4551371226E-15   0.5715746358E-14  -0.1701713382E-14
   0.3800000000E+01   0.8857782615E-16  -0.4678461466E-16   0.3057836657E+02   0.4135502619E-11   0.4135963098E-11   0.2725730695E-14  -0.5295948497E-14   0.2966284710E-15
   0.3800000000E+01   0.7291274332E+00  -0.1666665621E-16   0.3057836656E+02   0.4575255236E-11   0.4574666777E-11  -0.2119626498E-14   0.6594023908E-14   0.1479700314E-14
   0.3800000000E+01   0.1006011453E-15   0.7291274332E+00   0.3057836656E+02   0.4320416385E-11   0.4320830020E-11  -0.2369074967E-14   0.1509715965E-14  -0.1283188317E-14
   0.3800000000E+01   0.7291274332E+00   0.7291274332E+00   0.3057836656E+02   0.3930601306E-11   0.3929966004E-11   0.7269179488E-15  -0.1716150885E-14  -0.1001164741E-15
     1     2     3     4     5     6     7     8
     2     9    10     3     6    11    12     7
 VARIABLES = X,Y,Z,S11,S22,S33,S12,S13,S23
 ZONE, T="0.2000D+01" F=FEPOINT, I=   12 J=    2 ET=BRICK
   0.0000000000E+00   0.0000000000E+00   0.0000000000E+00   0.2983059217E+02   0.7488107868E+00   0.5053943601E-03   0.4724617952E+01   0.4150879026E-05   0.6574344608E-06
   0.1876608491E+01   0.2972254552E+00   0.1484507104E-06   0.2983000902E+02   0.7482510865E+00  -0.5994703171E-04   0.4724608355E+01   0.3391292886E-12  -0.1408735713E-12
   0.1762546543E+01   0.1017376177E+01   0.1484507100E-06   0.2983000901E+02   0.7482510865E+00  -0.5994703142E-04   0.4724608354E+01  -0.3312624268E-12   0.1367053163E-12
  -0.1140606600E+00   0.7201506645E+00   0.0000000000E+00   0.2982952918E+02   0.7478009991E+00  -0.5053942314E-03   0.4724616977E+01   0.4150878341E-05   0.6574347365E-06
  -0.3523166995E-16   0.2224440095E-15   0.7291274332E+00   0.2983059217E+02   0.7488107867E+00   0.5053943600E-03   0.4724617951E+01  -0.4150879024E-05  -0.6574344591E-06
   0.1876608491E+01   0.2972254552E+00   0.7291272847E+00   0.2983000901E+02   0.7482510865E+00  -0.5994703205E-04   0.4724608354E+01  -0.3344796785E-12   0.1393247731E-12
   0.1762546543E+01   0.1017376177E+01   0.7291272847E+00   0.2983000901E+02   0.7482510864E+00  -0.5994703141E-04   0.4724608354E+01   0.3424636312E-12  -0.1390429923E-12
  -0.1140606600E+00   0.7201506645E+00   0.7291274332E+00   0.2982952917E+02   0.7478009990E+00  -0.5053942305E-03   0.4724616977E+01  -0.4150878345E-05  -0.6574347369E-06
   0.3753215694E+01   0.5944509672E+00  -0.4678461466E-16   0.2982952918E+02   0.7478009992E+00  -0.5053942307E-03   0.4724616978E+01  -0.4150878355E-05  -0.6574347369E-06
   0.3639155034E+01   0.1314601632E+01  -0.1666665621E-16   0.2983059217E+02   0.7488107867E+00   0.5053943599E-03   0.4724617951E+01  -0.4150879013E-05  -0.6574344561E-06
   0.3753215694E+01   0.5944509672E+00   0.7291274332E+00   0.2982952917E+02   0.7478009991E+00  -0.5053942306E-03   0.4724616977E+01   0.4150878347E-05   0.6574347356E-06
   0.3639155034E+01   0.1314601632E+01   0.7291274332E+00   0.2983059216E+02   0.7488107866E+00   0.5053943597E-03   0.4724617951E+01   0.4150879021E-05   0.6574344580E-06
     1     2     3     4     5     6     7     8
     2     9    10     3     6    11    12     7
 VARIABLES = X,Y,Z,S11,S22,S33,S12,S13,S23
 ZONE, T="0.3000D+01" F=FEPOINT, I=   12 J=    2 ET=BRICK
   0.0000000000E+00   0.0000000000E+00   0.0000000000E+00   0.2765880416E+02   0.2920362794E+01   0.3903092658E-03   0.8986757337E+01   0.6281698326E-05   0.2041046989E-05
   0.1807007911E+01   0.5871322355E+00   0.2333097463E-06   0.2765834655E+02   0.2919924248E+01  -0.5826867234E-04   0.8986749203E+01   0.5113255753E-12  -0.3550489682E-12
   0.1581694083E+01   0.1280573740E+01   0.2333097463E-06   0.2765834655E+02   0.2919924248E+01  -0.5826867281E-04   0.8986749202E+01  -0.5126798650E-12   0.3597435785E-12
  -0.2253127679E+00   0.6934413965E+00   0.0000000000E+00   0.2765798062E+02   0.2919585560E+01  -0.3903090862E-03   0.8986755570E+01   0.6281697300E-05   0.2041047705E-05
  -0.6959581927E-16   0.2141939072E-15   0.7291274332E+00   0.2765880416E+02   0.2920362794E+01   0.3903092651E-03   0.8986757336E+01  -0.6281698329E-05  -0.2041046990E-05
   0.1807007911E+01   0.5871322355E+00   0.7291271998E+00   0.2765834655E+02   0.2919924248E+01  -0.5826867243E-04   0.8986749202E+01  -0.5139543087E-12   0.3593355963E-12
   0.1581694083E+01   0.1280573740E+01   0.7291271998E+00   0.2765834654E+02   0.2919924248E+01  -0.5826867243E-04   0.8986749201E+01   0.5144482895E-12  -0.3560580666E-12
  -0.2253127679E+00   0.6934413965E+00   0.7291274332E+00   0.2765798061E+02   0.2919585559E+01  -0.3903090860E-03   0.8986755569E+01  -0.6281697297E-05  -0.2041047702E-05
   0.3614014762E+01   0.1174264579E+01  -0.4678461466E-16   0.2765798062E+02   0.2919585560E+01  -0.3903090856E-03   0.8986755570E+01  -0.6281697301E-05  -0.2041047703E-05
   0.3388701994E+01   0.1867705975E+01  -0.1666665621E-16   0.2765880416E+02   0.2920362794E+01   0.3903092656E-03   0.8986757336E+01  -0.6281698327E-05  -0.2041046986E-05
   0.3614014762E+01   0.1174264579E+01   0.7291274332E+00   0.2765798061E+02   0.2919585560E+01  -0.3903090849E-03   0.8986755569E+01   0.6281697301E-05   0.2041047703E-05
   0.3388701994E+01   0.1867705975E+01   0.7291274332E+00   0.2765880416E+02   0.2920362794E+01   0.3903092652E-03   0.8986757335E+01   0.6281698323E-05   0.2041046988E-05
     1     2     3     4     5     6     7     8
     2     9    10     3     6    11    12     7
 VARIABLES = X,Y,Z,S11,S22,S33,S12,S13,S23
 ZONE, T="0.4000D+01" F=FEPOINT, I=   12 J=    2 ET=BRICK
   0.0000000000E+00   0.0000000000E+00   0.0000000000E+00   0.2427590543E+02   0.6302393742E+01  -0.3286512290E-04   0.1236920852E+02  -0.1332554809E-06  -0.6789705708E-07
   0.1692912357E+01   0.8625819355E+00  -0.5282826747E-08   0.2427593939E+02   0.6302427358E+01   0.3205542137E-06   0.1236920952E+02  -0.8318630238E-15   0.8149653738E-15
   0.1361895507E+01   0.1512239263E+01  -0.5282827031E-08   0.2427593939E+02   0.6302427357E+01   0.3205542838E-06   0.1236920951E+02  -0.1586559535E-14  -0.7702381563E-15
  -0.3310169278E+00   0.6496572999E+00   0.0000000000E+00   0.2427597404E+02   0.6302459918E+01   0.3286513266E-04   0.1236920969E+02  -0.1332554896E-06  -0.6789706149E-07
  -0.1022462885E-15   0.2006696400E-15   0.7291274332E+00   0.2427590543E+02   0.6302393741E+01  -0.3286512283E-04   0.1236920852E+02   0.1332554831E-06   0.6789705979E-07
   0.1692912357E+01   0.8625819355E+00   0.7291274384E+00   0.2427593939E+02   0.6302427357E+01   0.3205540688E-06   0.1236920951E+02  -0.3240159404E-14   0.4230689696E-15
   0.1361895507E+01   0.1512239263E+01   0.7291274384E+00   0.2427593938E+02   0.6302427357E+01   0.3205541404E-06   0.1236920951E+02   0.1243466985E-14   0.2763119947E-15
  -0.3310169278E+00   0.6496572999E+00   0.7291274332E+00   0.2427597404E+02   0.6302459917E+01   0.3286513272E-04   0.1236920969E+02   0.1332554868E-06   0.6789706051E-07
   0.3385824792E+01   0.1725163899E+01  -0.4678461466E-16   0.2427597404E+02   0.6302459918E+01   0.3286513253E-04   0.1236920969E+02   0.1332554786E-06   0.6789705790E-07
   0.3054807864E+01   0.2374821199E+01  -0.1666665621E-16   0.2427590543E+02   0.6302393740E+01  -0.3286512356E-04   0.1236920852E+02   0.1332554867E-06   0.6789706533E-07
   0.3385824792E+01   0.1725163899E+01   0.7291274332E+00   0.2427597404E+02   0.6302459918E+01   0.3286513353E-04   0.1236920969E+02  -0.1332554886E-06  -0.6789706282E-07
   0.3054807864E+01   0.2374821199E+01   0.7291274332E+00   0.2427590542E+02   0.6302393740E+01  -0.3286512256E-04   0.1236920852E+02  -0.1332554825E-06  -0.6789705764E-07
     1     2     3     4     5     6     7     8
     2     9    10     3     6    11    12     7
 VARIABLES = X,Y,Z,S11,S22,S33,S12,S13,S23
 ZONE, T="0.5000D+01" F=FEPOINT, I=   12 J=    2 ET=BRICK
   0.0000000000E+00   0.0000000000E+00   0.0000000000E+00   0.2001372954E+02   0.1056449647E+02  -0.6854185133E-04   0.1454087587E+02  -0.3363096973E-06  -0.2443432989E-06
   0.1537132211E+01   0.1116791941E+01  -0.1468398466E-07   0.2001379988E+02   0.1056456718E+02   0.8870910449E-06   0.1454087797E+02   0.5343659076E-14   0.5825795023E-14
   0.1108562015E+01   0.1706668502E+01  -0.1468398471E-07   0.2001379988E+02   0.1056456718E+02   0.8870912133E-06   0.1454087797E+02  -0.9504501846E-14  -0.1906377296E-14
  -0.4285703522E+00   0.5898764845E+00   0.0000000000E+00   0.2001387195E+02   0.1056463517E+02   0.6854186292E-04   0.1454087891E+02  -0.3363097080E-06  -0.2443432999E-06
  -0.1323791148E-15   0.1822042203E-15   0.7291274332E+00   0.2001372954E+02   0.1056449647E+02  -0.6854185059E-04   0.1454087587E+02   0.3363096945E-06   0.2443432971E-06
   0.1537132211E+01   0.1116791941E+01   0.7291274478E+00   0.2001379988E+02   0.1056456718E+02   0.8870909311E-06   0.1454087797E+02  -0.4152566354E-14   0.3858141041E-14
   0.1108562015E+01   0.1706668502E+01   0.7291274478E+00   0.2001379987E+02   0.1056456718E+02   0.8870909699E-06   0.1454087797E+02   0.8358274062E-15   0.6580204174E-16
  -0.4285703522E+00   0.5898764845E+00   0.7291274332E+00   0.2001387195E+02   0.1056463517E+02   0.6854186270E-04   0.1454087891E+02   0.3363097087E-06   0.2443433037E-06
   0.3074264579E+01   0.2233583959E+01  -0.4678461466E-16   0.2001387195E+02   0.1056463517E+02   0.6854186305E-04   0.1454087891E+02   0.3363097051E-06   0.2443433035E-06
   0.2645694226E+01   0.2823460443E+01  -0.1666665621E-16   0.2001372954E+02   0.1056449647E+02  -0.6854185246E-04   0.1454087586E+02   0.3363096930E-06   0.2443433004E-06
   0.3074264579E+01   0.2233583959E+01   0.7291274332E+00   0.2001387195E+02   0.1056463517E+02   0.6854186319E-04   0.1454087891E+02  -0.3363097040E-06  -0.2443432985E-06
   0.2645694226E+01   0.2823460443E+01   0.7291274332E+00   0.2001372954E+02   0.1056449647E+02  -0.6854185043E-04   0.1454087586E+02  -0.3363097014E-06  -0.2443433014E-06
     1     2     3     4     5     6     7     8
     2     9    10     3     6    11    12     7
 VARIABLES = X,Y,Z,S11,S22,S33,S12,S13,S23
 ZONE, T="0.6000D+01" F=FEPOINT, I=   12 J=    2 ET=BRICK
   0.0000000000E+00   0.0000000000E+00   0.0000000000E+00   0.1528908294E+02   0.1528908430E+02  -0.9720404450E-04   0.1528918082E+02  -0.4847448309E-06  -0.4847448362E-06
   0.1343502781E+01   0.1343502815E+01  -0.2421532848E-07   0.1528918192E+02   0.1528918544E+02   0.1454973919E-05   0.1528918362E+02   0.1372268292E-13  -0.2340921535E-14
   0.8279320348E+00   0.1859073906E+01  -0.2421532912E-07   0.1528918192E+02   0.1528918544E+02   0.1454973820E-05   0.1528918362E+02  -0.3730387211E-14  -0.5385621654E-14
  -0.5155709523E+00   0.5155709523E+00   0.0000000000E+00   0.1528928363E+02   0.1528928227E+02   0.9720405845E-04   0.1528918574E+02  -0.4847448641E-06  -0.4847448540E-06
  -0.1592523280E-15   0.1592523280E-15   0.7291274332E+00   0.1528908294E+02   0.1528908429E+02  -0.9720404476E-04   0.1528918082E+02   0.4847448400E-06   0.4847448480E-06
   0.1343502781E+01   0.1343502815E+01   0.7291274574E+00   0.1528918192E+02   0.1528918544E+02   0.1454973946E-05   0.1528918362E+02  -0.8454988537E-14  -0.8528457671E-14
   0.8279320348E+00   0.1859073906E+01   0.7291274574E+00   0.1528918192E+02   0.1528918544E+02   0.1454974310E-05   0.1528918362E+02   0.1884519117E-13   0.5921513476E-15
  -0.5155709523E+00   0.5155709523E+00   0.7291274332E+00   0.1528928362E+02   0.1528928227E+02   0.9720405915E-04   0.1528918574E+02   0.4847448551E-06   0.4847448458E-06
   0.2687005769E+01   0.2687005769E+01  -0.4678461466E-16   0.1528928363E+02   0.1528928227E+02   0.9720405839E-04   0.1528918575E+02   0.4847448509E-06   0.4847448482E-06
   0.2171434816E+01   0.3202576721E+01  -0.1666665621E-16   0.1528908294E+02   0.1528908429E+02  -0.9720404448E-04   0.1528918082E+02   0.4847448387E-06   0.4847448486E-06
   0.2687005769E+01   0.2687005769E+01   0.7291274332E+00   0.1528928363E+02   0.1528928227E+02   0.9720405964E-04   0.1528918574E+02  -0.4847448624E-06  -0.4847448501E-06
   0.2171434816E+01   0.3202576721E+01   0.7291274332E+00   0.1528908294E+02   0.1528908429E+02  -0.9720404445E-04   0.1528918082E+02  -0.4847448333E-06  -0.4847448411E-06
     1     2     3     4     5     6     7     8
     2     9    10     3     6    11    12     7
 VARIABLES = X,Y,Z,S11,S22,S33,S12,S13,S23
 ZONE, T="0.7000D+01" F=FEPOINT, I=   12 J=    2 ET=BRICK
   0.0000000000E+00   0.0000000000E+00   0.0000000000E+00   0.1056448970E+02   0.2001372456E+02  -0.7427303838E-04   0.1454087543E+02  -0.3396460423E-06  -0.4674826770E-06
   0.1116791908E+01   0.1537132226E+01  -0.2041127116E-07   0.1056456479E+02   0.2001380245E+02   0.1224375096E-05   0.1454087725E+02  -0.3510429241E-14   0.1852189512E-13
   0.5269155658E+00   0.1965702705E+01  -0.2041127032E-07   0.1056456478E+02   0.2001380245E+02   0.1224374964E-05   0.1454087725E+02  -0.1753170632E-13   0.7018449963E-14
  -0.5898764845E+00   0.4285703522E+00   0.0000000000E+00   0.1056464193E+02   0.2001387694E+02   0.7427305059E-04   0.1454087936E+02  -0.3396460427E-06  -0.4674826615E-06
  -0.1822042203E-15   0.1323791148E-15   0.7291274332E+00   0.1056448970E+02   0.2001372455E+02  -0.7427303803E-04   0.1454087542E+02   0.3396460243E-06   0.4674826518E-06
   0.1116791908E+01   0.1537132226E+01   0.7291274536E+00   0.1056456478E+02   0.2001380245E+02   0.1224374137E-05   0.1454087725E+02  -0.1866883377E-13   0.1350805264E-13
   0.5269155658E+00   0.1965702705E+01   0.7291274536E+00   0.1056456478E+02   0.2001380245E+02   0.1224374021E-05   0.1454087724E+02  -0.3975873243E-14   0.1367169610E-13
  -0.5898764845E+00   0.4285703522E+00   0.7291274332E+00   0.1056464193E+02   0.2001387694E+02   0.7427305093E-04   0.1454087935E+02   0.3396460591E-06   0.4674826879E-06
   0.2233583959E+01   0.3074264579E+01  -0.4678461466E-16   0.1056464194E+02   0.2001387694E+02   0.7427305072E-04   0.1454087936E+02   0.3396460545E-06   0.4674826808E-06
   0.1643707474E+01   0.3502834931E+01  -0.1666665621E-16   0.1056448970E+02   0.2001372455E+02  -0.7427303918E-04   0.1454087542E+02   0.3396460239E-06   0.4674826624E-06
   0.2233583959E+01   0.3074264579E+01   0.7291274332E+00   0.1056464193E+02   0.2001387694E+02   0.7427305187E-04   0.1454087935E+02  -0.3396460377E-06  -0.4674826613E-06
   0.1643707474E+01   0.3502834931E+01   0.7291274332E+00   0.1056448970E+02   0.2001372455E+02  -0.7427303801E-04   0.1454087542E+02  -0.3396460461E-06  -0.4674826769E-06
     1     2     3     4     5     6     7     8
     2     9    10     3     6    11    12     7
 VARIABLES = X,Y,Z,S11,S22,S33,S12,S13,S23
 ZONE, T="0.8000D+01" F=FEPOINT, I=   12 J=    2 ET=BRICK
   0.0000000000E+00   0.0000000000E+00   0.0000000000E+00   0.6301949200E+01   0.2427545217E+02  -0.4706762198E-03   0.1236919798E+02  -0.1163356075E-05  -0.2283215026E-05
   0.8625816031E+00   0.1692911912E+01  -0.9051657756E-07   0.6302422000E+01   0.2427595017E+02   0.6752287096E-05   0.1236920511E+02   0.3265757910E-12   0.6153881035E-13
   0.2129249960E+00   0.2023929807E+01  -0.9051659085E-07   0.6302422000E+01   0.2427595016E+02   0.6752287281E-05   0.1236920511E+02   0.2547151869E-13  -0.1753995149E-12
  -0.6496572999E+00   0.3310169278E+00   0.0000000000E+00   0.6302904460E+01   0.2427642730E+02   0.4706763148E-03   0.1236922023E+02  -0.1163356548E-05  -0.2283215602E-05
  -0.2006696400E-15   0.1022462885E-15   0.7291274332E+00   0.6301949199E+01   0.2427545217E+02  -0.4706762163E-03   0.1236919798E+02   0.1163356241E-05   0.2283215355E-05
   0.8625816031E+00   0.1692911912E+01   0.7291275237E+00   0.6302422000E+01   0.2427595016E+02   0.6752286851E-05   0.1236920511E+02   0.2147650391E-13  -0.1797091974E-12
   0.2129249960E+00   0.2023929807E+01   0.7291275237E+00   0.6302421999E+01   0.2427595016E+02   0.6752287497E-05   0.1236920511E+02   0.3266985277E-12   0.6780159895E-13
  -0.6496572999E+00   0.3310169278E+00   0.7291274332E+00   0.6302904459E+01   0.2427642730E+02   0.4706763182E-03   0.1236922023E+02   0.1163356380E-05   0.2283215276E-05
   0.1725163899E+01   0.3385824792E+01  -0.4678461466E-16   0.6302904460E+01   0.2427642730E+02   0.4706763191E-03   0.1236922023E+02   0.1163356375E-05   0.2283215272E-05
   0.1075506599E+01   0.3716841720E+01  -0.1666665621E-16   0.6301949199E+01   0.2427545217E+02  -0.4706762176E-03   0.1236919798E+02   0.1163356241E-05   0.2283215364E-05
   0.1725163899E+01   0.3385824792E+01   0.7291274332E+00   0.6302904459E+01   0.2427642730E+02   0.4706763167E-03   0.1236922023E+02  -0.1163356544E-05  -0.2283215595E-05
   0.1075506599E+01   0.3716841720E+01   0.7291274332E+00   0.6301949198E+01   0.2427545217E+02  -0.4706762200E-03   0.1236919798E+02  -0.1163356077E-05  -0.2283215030E-05
     1     2     3     4     5     6     7     8
     2     9    10     3     6    11    12     7
 VARIABLES = X,Y,Z,S11,S22,S33,S12,S13,S23
 ZONE, T="0.9000D+01" F=FEPOINT, I=   12 J=    2 ET=BRICK
   0.0000000000E+00   0.0000000000E+00   0.0000000000E+00   0.2919868043E+01   0.2765828144E+02  -0.1058625233E-03   0.8986755209E+01   0.1276500820E-06   0.3928665550E-06
   0.5871322622E+00   0.1807007251E+01   0.1459153264E-07   0.2919973015E+01   0.2765839315E+02  -0.8374947157E-06   0.8986754783E+01  -0.3381864022E-12   0.1163536611E-12
  -0.1063090800E+00   0.2032320279E+01   0.1459155392E-07   0.2919973015E+01   0.2765839315E+02  -0.8374950108E-06   0.8986754781E+01  -0.3377176731E-12   0.1319926357E-12
  -0.6934413965E+00   0.2253127679E+00   0.0000000000E+00   0.2920080311E+01   0.2765850334E+02   0.1058625359E-03   0.8986757698E+01   0.1276502686E-06   0.3928671417E-06
  -0.2141939072E-15   0.6959581927E-16   0.7291274332E+00   0.2919868043E+01   0.2765828143E+02  -0.1058625215E-03   0.8986755208E+01  -0.1276502709E-06  -0.3928671320E-06
   0.5871322622E+00   0.1807007251E+01   0.7291274186E+00   0.2919973015E+01   0.2765839315E+02  -0.8374942748E-06   0.8986754781E+01  -0.3395828892E-12   0.1300541595E-12
  -0.1063090800E+00   0.2032320279E+01   0.7291274186E+00   0.2919973014E+01   0.2765839314E+02  -0.8374944447E-06   0.8986754780E+01  -0.3388230452E-12   0.1194873396E-12
  -0.6934413965E+00   0.2253127679E+00   0.7291274332E+00   0.2920080311E+01   0.2765850334E+02   0.1058625368E-03   0.8986757697E+01  -0.1276500801E-06  -0.3928665595E-06
   0.1174264579E+01   0.3614014762E+01  -0.4678461466E-16   0.2920080311E+01   0.2765850334E+02   0.1058625370E-03   0.8986757699E+01  -0.1276500837E-06  -0.3928665666E-06
   0.4808231821E+00   0.3839327530E+01  -0.1666665621E-16   0.2919868042E+01   0.2765828143E+02  -0.1058625217E-03   0.8986755207E+01  -0.1276502734E-06  -0.3928671252E-06
   0.1174264579E+01   0.3614014762E+01   0.7291274332E+00   0.2920080311E+01   0.2765850334E+02   0.1058625357E-03   0.8986757698E+01   0.1276502720E-06   0.3928671460E-06
   0.4808231821E+00   0.3839327530E+01   0.7291274332E+00   0.2919868042E+01   0.2765828143E+02  -0.1058625232E-03   0.8986755206E+01   0.1276500787E-06   0.3928665490E-06
     1     2     3     4     5     6     7     8
     2     9    10     3     6    11    12     7
 VARIABLES = X,Y,Z,S11,S22,S33,S12,S13,S23
 ZONE, T="0.1000D+02" F=FEPOINT, I=   12 J=    2 ET=BRICK
   0.0000000000E+00   0.0000000000E+00   0.0000000000E+00   0.7482749211E+00   0.2983002822E+02  -0.3093225455E-04   0.4724617219E+01  -0.6357252358E-09  -0.4013798307E-08
   0.2972254774E+00   0.1876607809E+01  -0.1435482442E-09   0.7483057207E+00   0.2983006085E+02   0.8989719158E-08   0.4724616933E+01  -0.3451557047E-16   0.1284572487E-13
  -0.4229251748E+00   0.1990668545E+01  -0.1435485644E-09   0.7483057206E+00   0.2983006085E+02   0.8990032430E-08   0.4724616932E+01   0.4338253552E-15   0.1570583940E-13
  -0.7201506645E+00   0.1140606600E+00   0.0000000000E+00   0.7483368647E+00   0.2983009313E+02   0.3093226387E-04   0.4724617710E+01  -0.6357248058E-09  -0.4013808127E-08
  -0.2224440095E-15   0.3523166995E-16   0.7291274332E+00   0.7482749210E+00   0.2983002821E+02  -0.3093225234E-04   0.4724617218E+01   0.6357242743E-09   0.4013800798E-08
   0.2972254774E+00   0.1876607809E+01   0.7291274333E+00   0.7483057206E+00   0.2983006085E+02   0.8989622969E-08   0.4724616932E+01  -0.1592880515E-14   0.1259026248E-13
  -0.4229251748E+00   0.1990668545E+01   0.7291274333E+00   0.7483057205E+00   0.2983006085E+02   0.8989723813E-08   0.4724616932E+01  -0.8226858886E-15   0.1735103452E-13
  -0.7201506645E+00   0.1140606600E+00   0.7291274332E+00   0.7483368646E+00   0.2983009313E+02   0.3093226417E-04   0.4724617710E+01   0.6357270227E-09   0.4013805611E-08
   0.5944509672E+00   0.3753215694E+01  -0.4678461466E-16   0.7483368647E+00   0.2983009313E+02   0.3093226460E-04   0.4724617711E+01   0.6357199678E-09   0.4013797564E-08
  -0.1256996974E+00   0.3867276354E+01  -0.1666665621E-16   0.7482749210E+00   0.2983002821E+02  -0.3093225363E-04   0.4724617218E+01   0.6357193475E-09   0.4013811053E-08
   0.5944509672E+00   0.3753215694E+01   0.7291274332E+00   0.7483368646E+00   0.2983009313E+02   0.3093226381E-04   0.4724617710E+01  -0.6357261809E-09  -0.4013803077E-08
  -0.1256996974E+00   0.3867276354E+01   0.7291274332E+00   0.7482749209E+00   0.2983002821E+02  -0.3093225411E-04   0.4724617218E+01  -0.6357285159E-09  -0.4013800420E-08
     1     2     3     4     5     6     7     8
     2     9    10     3     6    11    12     7
 VARIABLES = X,Y,Z,S11,S22,S33,S12,S13,S23
 ZONE, T="0.1100D+02" F=FEPOINT, I=   12 J=    2 ET=BRICK
   0.0000000000E+00   0.0000000000E+00   0.0000000000E+00  -0.6360669367E-03   0.3057769828E+02  -0.6360669367E-03   0.9293625599E-08  -0.2551684137E-14   0.1500361382E-07
   0.3283577299E-09   0.1899999205E+01   0.5299782953E-09  -0.5621405889E-06   0.3057836601E+02  -0.5870070387E-06  -0.1151663313E-04   0.2025765493E-14   0.8057318358E-14
  -0.7291274335E+00   0.1900000795E+01   0.5299779747E-09  -0.5621407823E-06   0.3057836600E+02  -0.5870072320E-06  -0.1151663312E-04   0.2175744014E-14   0.7400129974E-14
  -0.7291274332E+00   0.1110223025E-15   0.0000000000E+00   0.6360670684E-03   0.3057903485E+02   0.6360670684E-03  -0.9294696442E-08  -0.1047453461E-15   0.1500360714E-07
  -0.2252168021E-15   0.3081487911E-31   0.7291274332E+00  -0.6360669357E-03   0.3057769828E+02  -0.6360669357E-03   0.9293625065E-08  -0.1404744544E-15  -0.1500360910E-07
   0.3283575634E-09   0.1899999205E+01   0.7291274326E+00  -0.5621411229E-06   0.3057836600E+02  -0.5870075669E-06  -0.1151663312E-04   0.9697708615E-15   0.1063264676E-13
  -0.7291274335E+00   0.1900000795E+01   0.7291274326E+00  -0.5621414399E-06   0.3057836600E+02  -0.5870078839E-06  -0.1151663312E-04   0.1126663917E-14   0.5936033101E-14
  -0.7291274332E+00   0.1110223025E-15   0.7291274332E+00   0.6360670689E-03   0.3057903485E+02   0.6360670689E-03  -0.9294690688E-08   0.2313377704E-14  -0.1500360927E-07
   0.0000000000E+00   0.3800000000E+01  -0.4678461466E-16   0.6360670681E-03   0.3057903485E+02   0.6360670681E-03  -0.9294689512E-08   0.2855059583E-16  -0.1500361210E-07
  -0.7291274332E+00   0.3800000000E+01  -0.1666665621E-16  -0.6360669376E-03   0.3057769828E+02  -0.6360669376E-03   0.9293645100E-08  -0.1416585065E-13  -0.1500360970E-07
   0.0000000000E+00   0.3800000000E+01   0.7291274332E+00   0.6360670692E-03   0.3057903485E+02   0.6360670692E-03  -0.9294684605E-08   0.1133277465E-14   0.1500361598E-07
  -0.7291274332E+00   0.3800000000E+01   0.7291274332E+00  -0.6360669350E-03   0.3057769827E+02  -0.6360669350E-03   0.9293618575E-08  -0.1305420903E-13   0.1500360377E-07
     1     2     3     4     5     6     7     8
     2     9    10     3     6    11    12     7
